# vtk DataFile Version 3.0
MachLine results file. Generated by MachLine, USU AeroLab (c) 2023.
ASCII
DATASET POLYDATA
POINTS                   0 float
POLYGONS                   0                   0
CELL_DATA                   0
NORMALS normals float
SCALARS inclination float 1
LOOKUP_TABLE default
SCALARS distribution_order float 1
LOOKUP_TABLE default
SCALARS N_discontinuous_edges float 1
LOOKUP_TABLE default
VECTORS centroid float
SCALARS C_p_ise float 1
LOOKUP_TABLE default
SCALARS sigma float 1
LOOKUP_TABLE default
VECTORS v float
VECTORS v_inner float
VECTORS dC_f float
POINT_DATA                   0
SCALARS mu float 1
LOOKUP_TABLE default
SCALARS Phi_u float 1
LOOKUP_TABLE default
SCALARS convex float 1
LOOKUP_TABLE default
